 DBCSR| CPU Multiplication driver                                           XSMM
 DBCSR| Multrec recursion limit                                              512
 DBCSR| Multiplication stack size                                           1000
 DBCSR| Maximum elements for images                                    UNLIMITED
 DBCSR| Multiplicative factor virtual images                                   1
 DBCSR| Use multiplication densification                                       T
 DBCSR| Multiplication size stacks                                             3
 DBCSR| Use memory pool for CPU allocation                                     F
 DBCSR| Number of 3D layers                                               SINGLE
 DBCSR| Use MPI memory allocation                                              F
 DBCSR| Use RMA algorithm                                                      F
 DBCSR| Use Communication thread                                               T
 DBCSR| Communication thread load                                             87
 DBCSR| MPI: My node id                                                        0
 DBCSR| MPI: Number of nodes                                                  64
 DBCSR| OMP: Current number of threads                                         1
 DBCSR| OMP: Max number of threads                                             1
 DBCSR| Split modifier for TAS multiplication algorithm                  1.0E+00


  **** **** ******  **  PROGRAM STARTED AT               2024-07-08 16:13:08.039
 ***** ** ***  *** **   PROGRAM STARTED ON        c1n3.epsteindrive.tifrh.res.in
 **    ****   ******    PROGRAM STARTED BY                          raheelhammad
 ***** **    ** ** **   PROGRAM PROCESS ID                                137004
  **** **  *******  **  PROGRAM STARTED IN /home/raheelhammad/cp2k/Electrostatic
                                           _TMD_new/Neutral/4x4/Li1_Li2

 CP2K| version string:                   CP2K version 10.0 (Development Version)
 CP2K| source code revision number:                                  git:8fcb233
 CP2K| cp2kflags: omp libint fftw3 libxc parallel mpi3 scalapack cosma xsmm spgl
 CP2K|            ib mkl sirius libvori libbqb
 CP2K| is freely available from                            https://www.cp2k.org/
 CP2K| Program compiled at                          Sat Feb 19 17:54:54 IST 2022
 CP2K| Program compiled on                             epsteindrive.tifrh.res.in
 CP2K| Program compiled for                                                local
 CP2K| Data directory path             /apps/cp2k/git-version/feb-2022/cp2k/data
 CP2K| Input file name                                                   run.inp

 GLOBAL| Force Environment number                                              1
 GLOBAL| Basis set file name                                      GTH_BASIS_SETS
 GLOBAL| Potential file name                                      GTH_POTENTIALS
 GLOBAL| MM Potential file name                                     MM_POTENTIAL
 GLOBAL| Coordinate file name                                     ./config_1.xyz
 GLOBAL| Method name                                                        CP2K
 GLOBAL| Project name                                                        run
 GLOBAL| Run type                                                         ENERGY
 GLOBAL| FFT library                                                       FFTW3
 GLOBAL| Diagonalization library                                       ScaLAPACK
 GLOBAL| Orthonormality check for eigenvectors                          DISABLED
 GLOBAL| Matrix multiplication library                                     COSMA
 GLOBAL| All-to-all communication in single precision                          F
 GLOBAL| FFTs using library dependent lengths                                  F
 GLOBAL| Grid backend                                                       AUTO
 GLOBAL| Global print level                                                 HIGH
 GLOBAL| MPI I/O enabled                                                       T
 GLOBAL| Total number of message passing processes                            64
 GLOBAL| Number of threads for this process                                    1
 GLOBAL| This output is from process                                           0
 GLOBAL| Stack size for threads created by OpenMP (OMP_STACKSIZE)        default
 GLOBAL| CPU model name                          AMD EPYC 7452 32-Core Processor
 GLOBAL| CPUID                                                              1002

 MEMORY| system memory details [Kb]
 MEMORY|                        rank 0           min           max       average
 MEMORY| MemTotal            263729356     263729356     263729356     263729356
 MEMORY| MemFree             253527408     253527408     253527408     253527408
 MEMORY| Buffers                255584        255584        255584        255584
 MEMORY| Cached                1917248       1917248       1917248       1917248
 MEMORY| Slab                   679180        679180        679180        679180
 MEMORY| SReclaimable           253168        253168        253168        253168
 MEMORY| MemLikelyFree       255953408     255953408     255953408     255953408


 *** Fundamental physical constants (SI units) ***

 *** Literature: B. J. Mohr and B. N. Taylor,
 ***             CODATA recommended values of the fundamental physical
 ***             constants: 2006, Web Version 5.1
 ***             http://physics.nist.gov/constants

 Speed of light in vacuum [m/s]                             2.99792458000000E+08
 Magnetic constant or permeability of vacuum [N/A**2]       1.25663706143592E-06
 Electric constant or permittivity of vacuum [F/m]          8.85418781762039E-12
 Planck constant (h) [J*s]                                  6.62606896000000E-34
 Planck constant (h-bar) [J*s]                              1.05457162825177E-34
 Elementary charge [C]                                      1.60217648700000E-19
 Electron mass [kg]                                         9.10938215000000E-31
 Electron g factor [ ]                                     -2.00231930436220E+00
 Proton mass [kg]                                           1.67262163700000E-27
 Fine-structure constant                                    7.29735253760000E-03
 Rydberg constant [1/m]                                     1.09737315685270E+07
 Avogadro constant [1/mol]                                  6.02214179000000E+23
 Boltzmann constant [J/K]                                   1.38065040000000E-23
 Atomic mass unit [kg]                                      1.66053878200000E-27
 Bohr radius [m]                                            5.29177208590000E-11

 *** Conversion factors ***

 [u] -> [a.u.]                                              1.82288848426455E+03
 [Angstrom] -> [Bohr] = [a.u.]                              1.88972613288564E+00
 [a.u.] = [Bohr] -> [Angstrom]                              5.29177208590000E-01
 [a.u.] -> [s]                                              2.41888432650478E-17
 [a.u.] -> [fs]                                             2.41888432650478E-02
 [a.u.] -> [J]                                              4.35974393937059E-18
 [a.u.] -> [N]                                              8.23872205491840E-08
 [a.u.] -> [K]                                              3.15774647902944E+05
 [a.u.] -> [kJ/mol]                                         2.62549961709828E+03
 [a.u.] -> [kcal/mol]                                       6.27509468713739E+02
 [a.u.] -> [Pa]                                             2.94210107994716E+13
 [a.u.] -> [bar]                                            2.94210107994716E+08
 [a.u.] -> [atm]                                            2.90362800883016E+08
 [a.u.] -> [eV]                                             2.72113838565563E+01
 [a.u.] -> [Hz]                                             6.57968392072181E+15
 [a.u.] -> [1/cm] (wave numbers)                            2.19474631370540E+05
 [a.u./Bohr**2] -> [1/cm]                                   5.14048714338585E+03
 

 CELL_TOP| Volume [angstrom^3]:                                      4235.418330
 CELL_TOP| Vector a [angstrom    12.727     0.000     0.000   |a| =    12.727000
 CELL_TOP| Vector b [angstrom     0.000    11.093     0.000   |b| =    11.093000
 CELL_TOP| Vector c [angstrom     0.000     0.000    30.000   |c| =    30.000000
 CELL_TOP| Angle (b,c), alpha [degree]:                                90.000000
 CELL_TOP| Angle (a,c), beta  [degree]:                                90.000000
 CELL_TOP| Angle (a,b), gamma [degree]:                                90.000000
 CELL_TOP| Numerically orthorhombic:                                         YES


 SUBCELL GRID  INFO FOR THE NONBONDED NEIGHBOR LISTS

    NUMBER OF SUBCELLS             ::                   5         4        11
    NUMBER OF PERIODIC      IMAGES ::                   1         1         1
    NUMBER OF INTERACTING SUBCELLS ::                   2         2         2

 GENERATE|  Preliminary Number of Bonds generated:                             0
 GENERATE|  Achieved consistency in connectivity generation.

 CELL| Volume [angstrom^3]:                                          4235.418330
 CELL| Vector a [angstrom]:      12.727     0.000     0.000   |a| =    12.727000
 CELL| Vector b [angstrom]:       0.000    11.093     0.000   |b| =    11.093000
 CELL| Vector c [angstrom]:       0.000     0.000    30.000   |c| =    30.000000
 CELL| Angle (b,c), alpha [degree]:                                    90.000000
 CELL| Angle (a,c), beta  [degree]:                                    90.000000
 CELL| Angle (a,b), gamma [degree]:                                    90.000000
 CELL| Numerically orthorhombic:                                             YES

 CELL_REF| Volume [angstrom^3]:                                      4235.418330
 CELL_REF| Vector a [angstrom    12.727     0.000     0.000   |a| =    12.727000
 CELL_REF| Vector b [angstrom     0.000    11.093     0.000   |b| =    11.093000
 CELL_REF| Vector c [angstrom     0.000     0.000    30.000   |c| =    30.000000
 CELL_REF| Angle (b,c), alpha [degree]:                                90.000000
 CELL_REF| Angle (a,c), beta  [degree]:                                90.000000
 CELL_REF| Angle (a,b), gamma [degree]:                                90.000000
 CELL_REF| Numerically orthorhombic:                                         YES

 *******************************************************************************
 *******************************************************************************
 **                                                                           **
 **     #####                         ##              ##                      **
 **    ##   ##            ##          ##              ##                      **
 **   ##     ##                       ##            ######                    **
 **   ##     ##  ##   ##  ##   #####  ##  ##   ####   ##    #####    #####    **
 **   ##     ##  ##   ##  ##  ##      ## ##   ##      ##   ##   ##  ##   ##   **
 **   ##  ## ##  ##   ##  ##  ##      ####     ###    ##   ######   ######    **
 **    ##  ###   ##   ##  ##  ##      ## ##      ##   ##   ##       ##        **
 **     #######   #####   ##   #####  ##  ##  ####    ##    #####   ##        **
 **           ##                                                    ##        **
 **                                                                           **
 **                                                ... make the atoms dance   **
 **                                                                           **
 **            Copyright (C) by CP2K developers group (2000-2022)             **
 **                      J. Chem. Phys. 152, 194103 (2020)                    **
 **                                                                           **
 *******************************************************************************

 RADII: ORBITAL BASIS in angstrom            Kind   Label     Radius  OCE Radius
                                                1   Mo      8.774904    8.774904
                                                2   S       5.948059    5.948059
                                                3   Li      9.432727    9.432727

 RADII: SHELL SETS OF ORBITAL BASIS in angstrom   Kind  Label   Set       Radius
                                                     1  Mo        1     8.774904
                                                     2  S         1     5.948059
                                                                  2     3.848979
                                                     3  Li        1     9.432727

 RADII: PRIMITIVE GAUSSIANS OF ORBITAL BASIS in anKindomLabel   Set       Radius
                                                     1  Mo        1     1.322635
                                                                        1.503464
                                                                        2.292598
                                                                        3.242789
                                                                        4.782020
                                                                        6.800660
                                                                        8.774904
                                                     2  S         1     1.013848
                                                                        1.224347
                                                                        2.256218
                                                                        3.676039
                                                                        5.948059
                                                     2  S         2     2.274257
                                                                        3.848979
                                                     3  Li        1     0.689290
                                                                        1.256738
                                                                        2.332806
                                                                        6.070064
                                                                        9.432727

 RADII: AUXILLIARY BASIS in angstrom         Kind   Label     Radius  OCE Radius
                                                          1   Mo        no basis
                                                          2   S         no basis
                                                          3   Li        no basis

 RADII: SHELL SETS OF AUXILLIARY BASIS in angstromKind  Label   Set       Radius
                                                     1   Mo             no basis
                                                     2   S              no basis
                                                     3   Li             no basis

 RADII: PRIMITIVE GAUSSIANS OF AUXILLIARY BASIS inKindstLabel   Set       Radius
                                                     1   Mo             no basis
                                                     2   S              no basis
                                                     3   Li             no basis

 RADII: LOCAL RI BASIS in angstrom           Kind   Label     Radius  OCE Radius
                                                          1   Mo        no basis
                                                          2   S         no basis
                                                          3   Li        no basis

 RADII: SHELL SETS OF LOCAL RI BASIS in angstrom  Kind  Label   Set       Radius
                                                     1   Mo             no basis
                                                     2   S              no basis
                                                     3   Li             no basis

 RADII: PRIMITIVE GAUSSIANS OF LOCAL RI BASIS in aKindroLabel   Set       Radius
                                                     1   Mo             no basis
                                                     2   S              no basis
                                                     3   Li             no basis

 RADII: CORE CHARGE DISTRIBUTIONS in angstrom          Kind   Label       Radius
                                                          1   Mo        1.763892
                                                          2   S         1.700456
                                                          3   Li        1.604283

 RADII: LOCAL PART OF GTH/ELP PP in angstrom           Kind   Label       Radius
                                                          1   Mo        0.968271
                                                          2   S         0.794828
                                                          3   Li        1.018017

 RADII: NON-LOCAL PART OF GTH PP in angstrom           Kind   Label       Radius
                                                          1   Mo        1.349523
                                                          2   S         1.176860
                                                          3   Li        0.000000

 RADII: ONE CENTER PROJECTORS in angstrom              Kind   Label       Radius

 DISTRIBUTION OF THE MOLECULES                    Process    Number of molecules
                                                        0                      1
                                                        1                      1
                                                        2                      1
                                                        3                      1
                                                        4                      1
                                                        5                      1
                                                        6                      0
                                                        7                      1
                                                        8                      1
                                                        9                      1
                                                       10                      1
                                                       11                      1
                                                       12                      1
                                                       13                      0
                                                       14                      0
                                                       15                      1
                                                       16                      1
                                                       17                      1
                                                       18                      1
                                                       19                      1
                                                       20                      1
                                                       21                      1
                                                       22                      1
                                                       23                      1
                                                       24                      1
                                                       25                      1
                                                       26                      1
                                                       27                      0
                                                       28                      0
                                                       29                      0
                                                       30                      0
                                                       31                      1
                                                       32                      1
                                                       33                      1
                                                       34                      1
                                                       35                      1
                                                       36                      1
                                                       37                      1
                                                       38                      1
                                                       39                      1
                                                       40                      1
                                                       41                      1
                                                       42                      1
                                                       43                      1
                                                       44                      1
                                                       45                      1
                                                       46                      1
                                                       47                      1
                                                       48                      1
                                                       49                      1
                                                       50                      1
                                                       51                      1
                                                       52                      1
                                                       53                      1
                                                       54                      1
                                                       55                      0
                                                       56                      0
                                                       57                      0
                                                       58                      0
                                                       59                      0
                                                       60                      0
                                                       61                      0
                                                       62                      0
                                                       63                      1
                                                      Sum                     49

  Process   Kind   Local molecules (global indices)
        0      1         1
               2
               3
               4
               5
               6
               7
               8
               9
              10
              11
              12
              13
              14
              15
              16
              17
              18
              19
              20
              21
              22
              23
              24
              25
              26
              27
              28
              29
              30
              31
              32
              33
              34
              35
              36
              37
              38
              39
              40
              41
              42
              43
              44
              45
              46
              47
              48
              49

 DISTRIBUTION OF THE PARTICLES                    Process    Number of particles
                                                        0                      1
                                                        1                      1
                                                        2                      1
                                                        3                      1
                                                        4                      1
                                                        5                      1
                                                        6                      0
                                                        7                      1
                                                        8                      1
                                                        9                      1
                                                       10                      1
                                                       11                      1
                                                       12                      1
                                                       13                      0
                                                       14                      0
                                                       15                      1
                                                       16                      1
                                                       17                      1
                                                       18                      1
                                                       19                      1
                                                       20                      1
                                                       21                      1
                                                       22                      1
                                                       23                      1
                                                       24                      1
                                                       25                      1
                                                       26                      1
                                                       27                      0
                                                       28                      0
                                                       29                      0
                                                       30                      0
                                                       31                      1
                                                       32                      1
                                                       33                      1
                                                       34                      1
                                                       35                      1
                                                       36                      1
                                                       37                      1
                                                       38                      1
                                                       39                      1
                                                       40                      1
                                                       41                      1
                                                       42                      1
                                                       43                      1
                                                       44                      1
                                                       45                      1
                                                       46                      1
                                                       47                      1
                                                       48                      1
                                                       49                      1
                                                       50                      1
                                                       51                      1
                                                       52                      1
                                                       53                      1
                                                       54                      1
                                                       55                      0
                                                       56                      0
                                                       57                      0
                                                       58                      0
                                                       59                      0
                                                       60                      0
                                                       61                      0
                                                       62                      0
                                                       63                      1
                                                      Sum                     49

  Process   Kind   Local particles (global indices)
        0      1        1
               2
               3

 DFT| Spin restricted Kohn-Sham (RKS) calculation                            RKS
 DFT| Multiplicity                                                             2
 DFT| Number of spin states                                                    1
 DFT| Charge                                                                   0
 DFT| Self-interaction correction (SIC)                                       NO
 DFT| Cutoffs: density                                              1.000000E-10
 DFT|          gradient                                             1.000000E-10
 DFT|          tau                                                  1.000000E-10
 DFT|          cutoff_smoothing_range                               0.000000E+00
 DFT| XC density smoothing                                                  NONE
 DFT| XC derivatives                                                          PW
 FUNCTIONAL| PBE:
 FUNCTIONAL| J.P.Perdew, K.Burke, M.Ernzerhof, Phys. Rev. Letter, vol. 77, n 18,
 FUNCTIONAL|  pp. 3865-3868, (1996){spin unpolarized}                           

 QS| Method:                                                                 GPW
 QS| Density plane wave grid type                        NON-SPHERICAL FULLSPACE
 QS| Number of grid levels:                                                    4
 QS| Density cutoff [a.u.]:                                                350.0
 QS| Multi grid cutoff [a.u.]: 1) grid level                               350.0
 QS|                           2) grid level                               116.7
 QS|                           3) grid level                                38.9
 QS|                           4) grid level                                13.0
 QS| Grid level progression factor:                                          3.0
 QS| Relative density cutoff [a.u.]:                                        35.0
 QS| Interaction thresholds: eps_pgf_orb:                                1.0E-05
 QS|                         eps_filter_matrix:                          0.0E+00
 QS|                         eps_core_charge:                            1.0E-12
 QS|                         eps_rho_gspace:                             1.0E-10
 QS|                         eps_rho_rspace:                             1.0E-10
 QS|                         eps_gvg_rspace:                             1.0E-05
 QS|                         eps_ppl:                                    1.0E-02
 QS|                         eps_ppnl:                                   1.0E-07


 ATOMIC KIND INFORMATION

  1. Atomic kind: Mo                                    Number of atoms:      16

     Orbital Basis Set                                   TZV2P-MOLOPT-SR-GTH-q14

       Number of orbital shell sets:                                           1
       Number of orbital shells:                                              12
       Number of primitive Cartesian functions:                                7
       Number of Cartesian basis functions:                                   51
       Number of spherical basis functions:                                   42
       Norm type:                                                              2

       Normalised Cartesian orbitals:

                        Set   Shell   Orbital            Exponent    Coefficient

                          1       1    2s                2.540273      -1.321231
                                                         1.999996       0.386074
                                                         0.894040       0.632184
                                                         0.439257       0.196926
                                                         0.189498       0.017023
                                                         0.083802      -0.027705
                                                         0.052949      -0.026613

                          1       2    3s                2.540273       0.226721
                                                         1.999996      -0.073158
                                                         0.894040      -0.053559
                                                         0.439257       0.091291
                                                         0.189498      -0.109922
                                                         0.083802      -0.065996
                                                         0.052949      -0.004390

                          1       3    4s                2.540273       0.151037
                                                         1.999996      -0.934259
                                                         0.894040       0.277268
                                                         0.439257      -0.018911
                                                         0.189498       0.203898
                                                         0.083802      -0.107599
                                                         0.052949       0.083646

                          1       4    5s                2.540273      -0.119990
                                                         1.999996       0.896807
                                                         0.894040       0.455473
                                                         0.439257      -0.443578
                                                         0.189498      -0.167165
                                                         0.083802      -0.001095
                                                         0.052949       0.077321

                          1       5    3px               2.540273       2.622682
                                                         1.999996      -2.341890
                                                         0.894040      -0.583031
                                                         0.439257      -0.176984
                                                         0.189498      -0.015780
                                                         0.083802      -0.000908
                                                         0.052949      -0.000447
                          1       5    3py               2.540273       2.622682
                                                         1.999996      -2.341890
                                                         0.894040      -0.583031
                                                         0.439257      -0.176984
                                                         0.189498      -0.015780
                                                         0.083802      -0.000908
                                                         0.052949      -0.000447
                          1       5    3pz               2.540273       2.622682
                                                         1.999996      -2.341890
                                                         0.894040      -0.583031
                                                         0.439257      -0.176984
                                                         0.189498      -0.015780
                                                         0.083802      -0.000908
                                                         0.052949      -0.000447

                          1       6    4px               2.540273      -0.260015
                                                         1.999996       0.590944
                                                         0.894040      -0.043681
                                                         0.439257      -0.117520
                                                         0.189498      -0.105390
                                                         0.083802      -0.009391
                                                         0.052949      -0.005803
                          1       6    4py               2.540273      -0.260015
                                                         1.999996       0.590944
                                                         0.894040      -0.043681
                                                         0.439257      -0.117520
                                                         0.189498      -0.105390
                                                         0.083802      -0.009391
                                                         0.052949      -0.005803
                          1       6    4pz               2.540273      -0.260015
                                                         1.999996       0.590944
                                                         0.894040      -0.043681
                                                         0.439257      -0.117520
                                                         0.189498      -0.105390
                                                         0.083802      -0.009391
                                                         0.052949      -0.005803

                          1       7    5px               2.540273      -0.353254
                                                         1.999996       0.905805
                                                         0.894040       0.246303
                                                         0.439257      -0.518036
                                                         0.189498       0.039707
                                                         0.083802      -0.012470
                                                         0.052949       0.039500
                          1       7    5py               2.540273      -0.353254
                                                         1.999996       0.905805
                                                         0.894040       0.246303
                                                         0.439257      -0.518036
                                                         0.189498       0.039707
                                                         0.083802      -0.012470
                                                         0.052949       0.039500
                          1       7    5pz               2.540273      -0.353254
                                                         1.999996       0.905805
                                                         0.894040       0.246303
                                                         0.439257      -0.518036
                                                         0.189498       0.039707
                                                         0.083802      -0.012470
                                                         0.052949       0.039500

                          1       8    4dx2              2.540273      -1.497042
                                                         1.999996       1.923448
                                                         0.894040       0.383738
                                                         0.439257       0.135280
                                                         0.189498       0.028294
                                                         0.083802       0.001439
                                                         0.052949       0.000783
                          1       8    4dxy              2.540273      -2.592953
                                                         1.999996       3.331510
                                                         0.894040       0.664653
                                                         0.439257       0.234311
                                                         0.189498       0.049007
                                                         0.083802       0.002493
                                                         0.052949       0.001357
                          1       8    4dxz              2.540273      -2.592953
                                                         1.999996       3.331510
                                                         0.894040       0.664653
                                                         0.439257       0.234311
                                                         0.189498       0.049007
                                                         0.083802       0.002493
                                                         0.052949       0.001357
                          1       8    4dy2              2.540273      -1.497042
                                                         1.999996       1.923448
                                                         0.894040       0.383738
                                                         0.439257       0.135280
                                                         0.189498       0.028294
                                                         0.083802       0.001439
                                                         0.052949       0.000783
                          1       8    4dyz              2.540273      -2.592953
                                                         1.999996       3.331510
                                                         0.894040       0.664653
                                                         0.439257       0.234311
                                                         0.189498       0.049007
                                                         0.083802       0.002493
                                                         0.052949       0.001357
                          1       8    4dz2              2.540273      -1.497042
                                                         1.999996       1.923448
                                                         0.894040       0.383738
                                                         0.439257       0.135280
                                                         0.189498       0.028294
                                                         0.083802       0.001439
                                                         0.052949       0.000783

                          1       9    5dx2              2.540273       0.864975
                                                         1.999996      -1.148376
                                                         0.894040      -0.357133
                                                         0.439257      -0.080387
                                                         0.189498       0.054574
                                                         0.083802       0.005397
                                                         0.052949       0.003242
                          1       9    5dxy              2.540273       1.498181
                                                         1.999996      -1.989045
                                                         0.894040      -0.618573
                                                         0.439257      -0.139234
                                                         0.189498       0.094525
                                                         0.083802       0.009348
                                                         0.052949       0.005615
                          1       9    5dxz              2.540273       1.498181
                                                         1.999996      -1.989045
                                                         0.894040      -0.618573
                                                         0.439257      -0.139234
                                                         0.189498       0.094525
                                                         0.083802       0.009348
                                                         0.052949       0.005615
                          1       9    5dy2              2.540273       0.864975
                                                         1.999996      -1.148376
                                                         0.894040      -0.357133
                                                         0.439257      -0.080387
                                                         0.189498       0.054574
                                                         0.083802       0.005397
                                                         0.052949       0.003242
                          1       9    5dyz              2.540273       1.498181
                                                         1.999996      -1.989045
                                                         0.894040      -0.618573
                                                         0.439257      -0.139234
                                                         0.189498       0.094525
                                                         0.083802       0.009348
                                                         0.052949       0.005615
                          1       9    5dz2              2.540273       0.864975
                                                         1.999996      -1.148376
                                                         0.894040      -0.357133
                                                         0.439257      -0.080387
                                                         0.189498       0.054574
                                                         0.083802       0.005397
                                                         0.052949       0.003242

                          1      10    6dx2              2.540273       1.432307
                                                         1.999996      -1.051013
                                                         0.894040       1.746108
                                                         0.439257      -0.345728
                                                         0.189498       0.011925
                                                         0.083802      -0.031871
                                                         0.052949       0.011210
                          1      10    6dxy              2.540273       2.480828
                                                         1.999996      -1.820408
                                                         0.894040       3.024348
                                                         0.439257      -0.598818
                                                         0.189498       0.020654
                                                         0.083802      -0.055202
                                                         0.052949       0.019417
                          1      10    6dxz              2.540273       2.480828
                                                         1.999996      -1.820408
                                                         0.894040       3.024348
                                                         0.439257      -0.598818
                                                         0.189498       0.020654
                                                         0.083802      -0.055202
                                                         0.052949       0.019417
                          1      10    6dy2              2.540273       1.432307
                                                         1.999996      -1.051013
                                                         0.894040       1.746108
                                                         0.439257      -0.345728
                                                         0.189498       0.011925
                                                         0.083802      -0.031871
                                                         0.052949       0.011210
                          1      10    6dyz              2.540273       2.480828
                                                         1.999996      -1.820408
                                                         0.894040       3.024348
                                                         0.439257      -0.598818
                                                         0.189498       0.020654
                                                         0.083802      -0.055202
                                                         0.052949       0.019417
                          1      10    6dz2              2.540273       1.432307
                                                         1.999996      -1.051013
                                                         0.894040       1.746108
                                                         0.439257      -0.345728
                                                         0.189498       0.011925
                                                         0.083802      -0.031871
                                                         0.052949       0.011210

                          1      11    5fx3              2.540273       0.878054
                                                         1.999996      -0.786839
                                                         0.894040      -0.419447
                                                         0.439257      -0.111386
                                                         0.189498      -0.007752
                                                         0.083802      -0.000849
                                                         0.052949       0.000161
                          1      11    5fx2y             2.540273       1.963389
                                                         1.999996      -1.759425
                                                         0.894040      -0.937912
                                                         0.439257      -0.249068
                                                         0.189498      -0.017335
                                                         0.083802      -0.001899
                                                         0.052949       0.000360
                          1      11    5fx2z             2.540273       1.963389
                                                         1.999996      -1.759425
                                                         0.894040      -0.937912
                                                         0.439257      -0.249068
                                                         0.189498      -0.017335
                                                         0.083802      -0.001899
                                                         0.052949       0.000360
                          1      11    5fxy2             2.540273       1.963389
                                                         1.999996      -1.759425
                                                         0.894040      -0.937912
                                                         0.439257      -0.249068
                                                         0.189498      -0.017335
                                                         0.083802      -0.001899
                                                         0.052949       0.000360
                          1      11    5fxyz             2.540273       3.400689
                                                         1.999996      -3.047414
                                                         0.894040      -1.624512
                                                         0.439257      -0.431398
                                                         0.189498      -0.030025
                                                         0.083802      -0.003290
                                                         0.052949       0.000623
                          1      11    5fxz2             2.540273       1.963389
                                                         1.999996      -1.759425
                                                         0.894040      -0.937912
                                                         0.439257      -0.249068
                                                         0.189498      -0.017335
                                                         0.083802      -0.001899
                                                         0.052949       0.000360
                          1      11    5fy3              2.540273       0.878054
                                                         1.999996      -0.786839
                                                         0.894040      -0.419447
                                                         0.439257      -0.111386
                                                         0.189498      -0.007752
                                                         0.083802      -0.000849
                                                         0.052949       0.000161
                          1      11    5fy2z             2.540273       1.963389
                                                         1.999996      -1.759425
                                                         0.894040      -0.937912
                                                         0.439257      -0.249068
                                                         0.189498      -0.017335
                                                         0.083802      -0.001899
                                                         0.052949       0.000360
                          1      11    5fyz2             2.540273       1.963389
                                                         1.999996      -1.759425
                                                         0.894040      -0.937912
                                                         0.439257      -0.249068
                                                         0.189498      -0.017335
                                                         0.083802      -0.001899
                                                         0.052949       0.000360
                          1      11    5fz3              2.540273       0.878054
                                                         1.999996      -0.786839
                                                         0.894040      -0.419447
                                                         0.439257      -0.111386
                                                         0.189498      -0.007752
                                                         0.083802      -0.000849
                                                         0.052949       0.000161

                          1      12    6fx3              2.540273       0.396157
                                                         1.999996      -0.370026
                                                         0.894040       0.516215
                                                         0.439257      -0.036427
                                                         0.189498      -0.015509
                                                         0.083802      -0.000859
                                                         0.052949      -0.001005
                          1      12    6fx2y             2.540273       0.885834
                                                         1.999996      -0.827403
                                                         0.894040       1.154292
                                                         0.439257      -0.081452
                                                         0.189498      -0.034678
                                                         0.083802      -0.001921
                                                         0.052949      -0.002247
                          1      12    6fx2z             2.540273       0.885834
                                                         1.999996      -0.827403
                                                         0.894040       1.154292
                                                         0.439257      -0.081452
                                                         0.189498      -0.034678
                                                         0.083802      -0.001921
                                                         0.052949      -0.002247
                          1      12    6fxy2             2.540273       0.885834
                                                         1.999996      -0.827403
                                                         0.894040       1.154292
                                                         0.439257      -0.081452
                                                         0.189498      -0.034678
                                                         0.083802      -0.001921
                                                         0.052949      -0.002247
                          1      12    6fxyz             2.540273       1.534310
                                                         1.999996      -1.433104
                                                         0.894040       1.999293
                                                         0.439257      -0.141080
                                                         0.189498      -0.060064
                                                         0.083802      -0.003326
                                                         0.052949      -0.003891
                          1      12    6fxz2             2.540273       0.885834
                                                         1.999996      -0.827403
                                                         0.894040       1.154292
                                                         0.439257      -0.081452
                                                         0.189498      -0.034678
                                                         0.083802      -0.001921
                                                         0.052949      -0.002247
                          1      12    6fy3              2.540273       0.396157
                                                         1.999996      -0.370026
                                                         0.894040       0.516215
                                                         0.439257      -0.036427
                                                         0.189498      -0.015509
                                                         0.083802      -0.000859
                                                         0.052949      -0.001005
                          1      12    6fy2z             2.540273       0.885834
                                                         1.999996      -0.827403
                                                         0.894040       1.154292
                                                         0.439257      -0.081452
                                                         0.189498      -0.034678
                                                         0.083802      -0.001921
                                                         0.052949      -0.002247
                          1      12    6fyz2             2.540273       0.885834
                                                         1.999996      -0.827403
                                                         0.894040       1.154292
                                                         0.439257      -0.081452
                                                         0.189498      -0.034678
                                                         0.083802      -0.001921
                                                         0.052949      -0.002247
                          1      12    6fz3              2.540273       0.396157
                                                         1.999996      -0.370026
                                                         0.894040       0.516215
                                                         0.439257      -0.036427
                                                         0.189498      -0.015509
                                                         0.083802      -0.000859
                                                         0.052949      -0.001005

       Atomic covalent radius [Angstrom]:                                  1.300

       Atomic van der Waals radius [Angstrom]:                             1.670

     GTH Potential information for                                   GTH-PBE-q14

       Description:                       Goedecker-Teter-Hutter pseudopotential
                                           Goedecker et al., PRB 54, 1703 (1996)
                                          Hartwigsen et al., PRB 58, 3641 (1998)
                                                      Krack, TCA 114, 145 (2005)

       Gaussian exponent of the core charge distribution:               2.704164
       Electronic configuration (s p d ...):                           3   6   5

       Parameters of the local part of the GTH pseudopotential:

                          rloc        C1          C2          C3          C4
                        0.430000   28.609368   -4.721803

       Parameters of the non-local part of the GTH pseudopotential:

                   l      r(l)      h(i,j,l)

                   0    0.345216    0.146303    2.762005
                                    2.762005   -3.565733
                   1    0.416888   -0.190785   -0.728744
                                   -0.728744    0.862262
                   2    0.420508    1.216814   -2.686463
                                   -2.686463    3.046162

  2. Atomic kind: S                                     Number of atoms:      32

     Orbital Basis Set                                              TZV2P-GTH-q6

       Number of orbital shell sets:                                           2
       Number of orbital shells:                                               8
       Number of primitive Cartesian functions:                                7
       Number of Cartesian basis functions:                                   24
       Number of spherical basis functions:                                   22
       Norm type:                                                              2

       Normalised Cartesian orbitals:

                        Set   Shell   Orbital            Exponent    Coefficient

                          1       1    3s                2.977594      -0.110522
                                                         2.019087       0.494350
                                                         0.643941      -0.174361
                                                         0.250199      -0.187210
                                                         0.089165      -0.017679

                          1       2    4s                2.977594       0.000000
                                                         2.019087       0.000000
                                                         0.643941       0.000000
                                                         0.250199       0.252130
                                                         0.089165       0.000000

                          1       3    5s                2.977594       0.000000
                                                         2.019087       0.000000
                                                         0.643941       0.000000
                                                         0.250199       0.000000
                                                         0.089165       0.116294

                          1       4    4px               2.977594       0.291303
                                                         2.019087      -0.079637
                                                         0.643941      -0.284474
                                                         0.250199      -0.129687
                                                         0.089165      -0.019473
                          1       4    4py               2.977594       0.291303
                                                         2.019087      -0.079637
                                                         0.643941      -0.284474
                                                         0.250199      -0.129687
                                                         0.089165      -0.019473
                          1       4    4pz               2.977594       0.291303
                                                         2.019087      -0.079637
                                                         0.643941      -0.284474
                                                         0.250199      -0.129687
                                                         0.089165      -0.019473

                          1       5    5px               2.977594       0.000000
                                                         2.019087       0.000000
                                                         0.643941       0.000000
                                                         0.250199       0.252230
                                                         0.089165       0.000000
                          1       5    5py               2.977594       0.000000
                                                         2.019087       0.000000
                                                         0.643941       0.000000
                                                         0.250199       0.252230
                                                         0.089165       0.000000
                          1       5    5pz               2.977594       0.000000
                                                         2.019087       0.000000
                                                         0.643941       0.000000
                                                         0.250199       0.252230
                                                         0.089165       0.000000

                          1       6    6px               2.977594       0.000000
                                                         2.019087       0.000000
                                                         0.643941       0.000000
                                                         0.250199       0.000000
                                                         0.089165       0.069452
                          1       6    6py               2.977594       0.000000
                                                         2.019087       0.000000
                                                         0.643941       0.000000
                                                         0.250199       0.000000
                                                         0.089165       0.069452
                          1       6    6pz               2.977594       0.000000
                                                         2.019087       0.000000
                                                         0.643941       0.000000
                                                         0.250199       0.000000
                                                         0.089165       0.069452

                          2       1    3dx2              0.819000       1.160530
                                                         0.269000       0.000000
                          2       1    3dxy              0.819000       2.010097
                                                         0.269000       0.000000
                          2       1    3dxz              0.819000       2.010097
                                                         0.269000       0.000000
                          2       1    3dy2              0.819000       1.160530
                                                         0.269000       0.000000
                          2       1    3dyz              0.819000       2.010097
                                                         0.269000       0.000000
                          2       1    3dz2              0.819000       1.160530
                                                         0.269000       0.000000

                          2       2    4dx2              0.819000       0.000000
                                                         0.269000       0.165377
                          2       2    4dxy              0.819000       0.000000
                                                         0.269000       0.286442
                          2       2    4dxz              0.819000       0.000000
                                                         0.269000       0.286442
                          2       2    4dy2              0.819000       0.000000
                                                         0.269000       0.165377
                          2       2    4dyz              0.819000       0.000000
                                                         0.269000       0.286442
                          2       2    4dz2              0.819000       0.000000
                                                         0.269000       0.165377

       Atomic covalent radius [Angstrom]:                                  1.020

       Atomic van der Waals radius [Angstrom]:                             1.800

     GTH Potential information for                                    GTH-PBE-q6

       Description:                       Goedecker-Teter-Hutter pseudopotential
                                           Goedecker et al., PRB 54, 1703 (1996)
                                          Hartwigsen et al., PRB 58, 3641 (1998)
                                                      Krack, TCA 114, 145 (2005)

       Gaussian exponent of the core charge distribution:               2.834467
       Electronic configuration (s p d ...):                               2   4

       Parameters of the local part of the GTH pseudopotential:

                          rloc        C1          C2          C3          C4
                        0.420000   -5.986260

       Parameters of the non-local part of the GTH pseudopotential:

                   l      r(l)      h(i,j,l)

                   0    0.364820   13.143544   -4.241830
                                   -4.241830    5.476180
                   1    0.409480    3.700891

  3. Atomic kind: Li                                    Number of atoms:       1

     Orbital Basis Set                                    TZV2P-MOLOPT-SR-GTH-q3

       Number of orbital shell sets:                                           1
       Number of orbital shells:                                               6
       Number of primitive Cartesian functions:                                5
       Number of Cartesian basis functions:                                   10
       Number of spherical basis functions:                                   10
       Norm type:                                                              2

       Normalised Cartesian orbitals:

                        Set   Shell   Orbital            Exponent    Coefficient

                          1       1    2s                7.133128       0.789023
                                                         1.999997       0.499164
                                                         0.612031       0.180132
                                                         0.084367       0.012767
                                                         0.032613       0.006134

                          1       2    3s                7.133128      -0.012222
                                                         1.999997       0.173462
                                                         0.612031       0.090842
                                                         0.084367      -0.088140
                                                         0.032613      -0.017627

                          1       3    4s                7.133128      -0.855871
                                                         1.999997      -0.112532
                                                         0.612031       0.025737
                                                         0.084367      -0.063139
                                                         0.032613       0.075386

                          1       4    5s                7.133128       2.317336
                                                         1.999997       0.470475
                                                         0.612031      -0.463754
                                                         0.084367      -0.022663
                                                         0.032613       0.006981

                          1       5    3px               7.133128      -0.376257
                                                         1.999997      -0.042929
                                                         0.612031      -0.246610
                                                         0.084367      -0.046042
                                                         0.032613      -0.003334
                          1       5    3py               7.133128      -0.376257
                                                         1.999997      -0.042929
                                                         0.612031      -0.246610
                                                         0.084367      -0.046042
                                                         0.032613      -0.003334
                          1       5    3pz               7.133128      -0.376257
                                                         1.999997      -0.042929
                                                         0.612031      -0.246610
                                                         0.084367      -0.046042
                                                         0.032613      -0.003334

                          1       6    4px               7.133128       0.614269
                                                         1.999997       0.257609
                                                         0.612031       0.344343
                                                         0.084367       0.001176
                                                         0.032613      -0.018413
                          1       6    4py               7.133128       0.614269
                                                         1.999997       0.257609
                                                         0.612031       0.344343
                                                         0.084367       0.001176
                                                         0.032613      -0.018413
                          1       6    4pz               7.133128       0.614269
                                                         1.999997       0.257609
                                                         0.612031       0.344343
                                                         0.084367       0.001176
                                                         0.032613      -0.018413

       Atomic covalent radius [Angstrom]:                                  1.230

       Atomic van der Waals radius [Angstrom]:                             1.820

     GTH Potential information for                                    GTH-PBE-q3

       Description:                       Goedecker-Teter-Hutter pseudopotential
                                           Goedecker et al., PRB 54, 1703 (1996)
                                          Hartwigsen et al., PRB 58, 3641 (1998)
                                                      Krack, TCA 114, 145 (2005)

       Gaussian exponent of the core charge distribution:               3.125000
       Electronic configuration (s p d ...):                                   3

       Parameters of the local part of the GTH pseudopotential:

                          rloc        C1          C2          C3          C4
                        0.400000  -14.081155    9.626220   -1.783616    0.085152


 MOLECULE KIND INFORMATION


 All atoms are their own molecule, skipping detailed information


 TOTAL NUMBERS AND MAXIMUM NUMBERS

  Total number of            - Atomic kinds:                                   3
                             - Atoms:                                         49
                             - Shell sets:                                    81
                             - Shells:                                       454
                             - Primitive Cartesian functions:                341
                             - Cartesian basis functions:                   1594
                             - Spherical basis functions:                   1386

  Maximum angular momentum of- Orbital basis functions:                        3
                             - Local part of the GTH pseudopotential:          6
                             - Non-local part of the GTH pseudopotential:      4


 MODULE QUICKSTEP:  ATOMIC COORDINATES IN angstrom

 Atom  Kind  Element       X           Y           Z          Z(eff)       Mass
    1   1 Mo  42       2.390000    2.310000    3.000000      14.0000     95.9600
    2   1 Mo  42       0.796000    5.080000    3.000000      14.0000     95.9600
    3   1 Mo  42       5.570000    2.310000    3.000000      14.0000     95.9600
    4   1 Mo  42       3.980000    5.080000    3.000000      14.0000     95.9600
    5   1 Mo  42       2.390000    7.860000    3.000000      14.0000     95.9600
    6   1 Mo  42       0.796000   10.600000    3.000000      14.0000     95.9600
    7   1 Mo  42       8.750000    2.310000    3.000000      14.0000     95.9600
    8   1 Mo  42       7.160000    5.080000    3.000000      14.0000     95.9600
    9   1 Mo  42       5.570000    7.860000    3.000000      14.0000     95.9600
   10   1 Mo  42       3.980000   10.600000    3.000000      14.0000     95.9600
   11   1 Mo  42      11.900000    2.310000    3.000000      14.0000     95.9600
   12   1 Mo  42      10.300000    5.080000    3.000000      14.0000     95.9600
   13   1 Mo  42       8.750000    7.860000    3.000000      14.0000     95.9600
   14   1 Mo  42       7.160000   10.600000    3.000000      14.0000     95.9600
   15   1 Mo  42      11.900000    7.860000    3.000000      14.0000     95.9600
   16   1 Mo  42      10.300000   10.600000    3.000000      14.0000     95.9600
   17   2 S   16       2.390000    0.462000    4.569892       6.0000     32.0650
   18   2 S   16       0.795000    3.240000    4.569876       6.0000     32.0650
   19   2 S   16       5.570000    0.462000    4.569910       6.0000     32.0650
[...]
 flops    42 x    10 x    10              6560400       0.0%    100.0%      0.0%
 flops    10 x    10 x    22              6696800       0.0%    100.0%      0.0%
 flops    10 x    22 x    10              6714400       0.0%    100.0%      0.0%
 flops    22 x    10 x    10              6855200       0.0%    100.0%      0.0%
 flops    42 x    10 x    32              7526400       0.0%    100.0%      0.0%
 flops    10 x    42 x    32              7526400       0.0%    100.0%      0.0%
 flops    22 x    10 x    32              7884800       0.0%    100.0%      0.0%
 flops    10 x    22 x    32              7884800       0.0%    100.0%      0.0%
 flops    42 x     4 x    42             39739392       0.0%    100.0%      0.0%
 flops    42 x     4 x    22             41631744       0.0%    100.0%      0.0%
 flops    22 x     4 x    42             41631744       0.0%    100.0%      0.0%
 flops    22 x     4 x    22             43614208       0.0%    100.0%      0.0%
 flops    42 x    32 x    10             56340480       0.0%    100.0%      0.0%
 flops    10 x    32 x    42             56340480       0.0%    100.0%      0.0%
 flops    22 x    32 x    10             59023360       0.0%    100.0%      0.0%
 flops    10 x    32 x    22             59023360       0.0%    100.0%      0.0%
 flops    42 x    22 x    36             85155840       0.0%    100.0%      0.0%
 flops    22 x    42 x    36             85155840       0.0%    100.0%      0.0%
 flops    42 x    42 x    36             86365440       0.0%    100.0%      0.0%
 flops    22 x    22 x    36             91998720       0.0%    100.0%      0.0%
 flops    42 x    42 x    10            420008400       0.0%    100.0%      0.0%
 flops    10 x    42 x    42            424630080       0.0%    100.0%      0.0%
 flops    42 x    10 x    42            433661760       0.0%    100.0%      0.0%
 flops    42 x    22 x    10            439916400       0.0%    100.0%      0.0%
 flops    22 x    42 x    10            439916400       0.0%    100.0%      0.0%
 flops    10 x    42 x    22            443501520       0.0%    100.0%      0.0%
 flops    10 x    22 x    42            444591840       0.0%    100.0%      0.0%
 flops    42 x    10 x    22            452963280       0.0%    100.0%      0.0%
 flops    22 x    10 x    42            454053600       0.0%    100.0%      0.0%
 flops    22 x    22 x    10            460613120       0.0%    100.0%      0.0%
 flops    10 x    22 x    22            464911040       0.0%    100.0%      0.0%
 flops    22 x    10 x    22            474823360       0.0%    100.0%      0.0%
 flops    42 x    22 x    32            529858560       0.0%    100.0%      0.0%
 flops    22 x    42 x    32            529858560       0.0%    100.0%      0.0%
 flops    42 x    42 x    32            537384960       0.0%    100.0%      0.0%
 flops    22 x    22 x    32            572436480       0.0%    100.0%      0.0%
 flops    42 x    32 x    42           3786080256       0.0%    100.0%      0.0%
 flops    42 x    32 x    22           3966369792       0.0%    100.0%      0.0%
 flops    22 x    32 x    42           3966369792       0.0%    100.0%      0.0%
 flops    22 x    32 x    22           4155244544       0.0%    100.0%      0.0%
 flops    42 x    42 x    42          28601524224       0.0%    100.0%      0.0%
 flops    42 x    42 x    22          29884022784       0.0%    100.0%      0.0%
 flops    42 x    22 x    42          29923762176       0.0%    100.0%      0.0%
 flops    22 x    42 x    42          29923762176       0.0%    100.0%      0.0%
 flops    22 x    22 x    42          31307071488       0.0%    100.0%      0.0%
 flops    22 x    42 x    22          31325529312       0.0%    100.0%      0.0%
 flops    42 x    22 x    22          31325529312       0.0%    100.0%      0.0%
 flops    22 x    22 x    22          32825015520       0.0%    100.0%      0.0%
 flops inhomo. stacks                           0       0.0%      0.0%      0.0%
 flops total                       269.338482E+09       0.0%    100.0%      0.0%
 flops max/rank                      4.642875E+09       0.0%    100.0%      0.0%
 matmuls inhomo. stacks                         0       0.0%      0.0%      0.0%
 matmuls total                            5924092       0.0%    100.0%      0.0%
 number of processed stacks                274015       0.0%    100.0%      0.0%
 average stack size                                     0.0      21.6       0.0
 marketing flops                   281.598853E+09
 -------------------------------------------------------------------------------
 # multiplications                             66
 max memory usage/rank             430.227456E+06
 # max total images/rank                        1
 # max 3D layers                                1
 # MPI messages exchanged                   59136
 MPI messages size (bytes):
  total size                        12.154450E+09
  min size                           0.000000E+00
  max size                         279.552000E+03
  average size                     205.533859E+03
 MPI breakdown and total messages size (bytes):
             size <=      128                 784                        0
       128 < size <=     8192                   0                        0
      8192 < size <=    32768                   0                        0
     32768 < size <=   131072                9520                428690304
    131072 < size <=  4194304               48832              11725759584
   4194304 < size <= 16777216                   0                        0
  16777216 < size                               0                        0
 -------------------------------------------------------------------------------
 -                                                                             -
 -                      DBCSR MESSAGE PASSING PERFORMANCE                      -
 -                                                                             -
 -------------------------------------------------------------------------------
 ROUTINE             CALLS      AVE VOLUME [Bytes]
 MP_Bcast               64                     12.
 MP_Allreduce          496                     15.
 MP_Alltoall           557                  51172.
 MP_ISend             2112                  89953.
 MP_IRecv             2112                  89886.
 -------------------------------------------------------------------------------

 -------------------------------------------------------------------------------
 -                                                                             -
 -                                GRID STATISTICS                              -
 -                                                                             -
 -------------------------------------------------------------------------------
 LP    KERNEL             BACKEND                              COUNT     PERCENT
 4     collocate ortho    REF                                 170376      19.68%
 6     collocate ortho    REF                                 158358      18.30%
 4     integrate ortho    REF                                  99328      11.48%
 5     collocate ortho    REF                                  79768       9.22%
 2     collocate ortho    REF                                  57834       6.68%
 8     collocate ortho    REF                                  47224       5.46%
 6     integrate ortho    REF                                  47224       5.46%
 2     integrate ortho    REF                                  46216       5.34%
 3     collocate ortho    REF                                  42247       4.88%
 7     collocate ortho    REF                                  36848       4.26%
 5     integrate ortho    REF                                  36848       4.26%
 3     integrate ortho    REF                                  33708       3.89%
 0     collocate general  REF                                   6272       0.72%
 0     integrate general  REF                                   3136       0.36%
 1     collocate ortho    REF                                    165       0.02%
 -------------------------------------------------------------------------------

 MEMORY| Estimated peak process memory [MiB]                                 421

 -------------------------------------------------------------------------------
 ----                             MULTIGRID INFO                            ----
 -------------------------------------------------------------------------------
 count for grid        1:        1103054          cutoff [a.u.]          350.00
 count for grid        2:        2290828          cutoff [a.u.]          116.67
 count for grid        3:        1408669          cutoff [a.u.]           38.89
 count for grid        4:         930512          cutoff [a.u.]           12.96
 total gridlevel count  :        5733063

 -------------------------------------------------------------------------------
 -                                                                             -
 -                         MESSAGE PASSING PERFORMANCE                         -
 -                                                                             -
 -------------------------------------------------------------------------------

 ROUTINE             CALLS      AVE VOLUME [Bytes]
 MP_Group                4
 MP_Bcast              731                1195685.
 MP_Allreduce         1674                   1481.
 MP_Sync               156
 MP_Alltoall           155                8587723.
 MP_ISendRecv         1764                  86400.
 MP_Wait              2519
 MP_comm_split          11
 MP_ISend              648                 516832.
 MP_IRecv              648                 514320.
 MP_Recv                 8                 354816.
 MP_Write_All            8                 568800.
 -------------------------------------------------------------------------------


 -------------------------------------------------------------------------------
 -                                                                             -
 -                           R E F E R E N C E S                               -
 -                                                                             -
 -------------------------------------------------------------------------------
 
 CP2K version 10.0 (Development Version), the CP2K developers group (2022).
 CP2K is freely available from https://www.cp2k.org/ .

 Kuehne,Thomas D.; Iannuzzi,Marcella; Del Ben,Mauro;
 Rybkin,Vladimir V.; Seewald,Patrick; Stein,Frederick; Laino,Teodoro;
 Khaliullin,Rustam Z.; Schuett,Ole; Schiffmann,Florian; Golze,Dorothea;
 Wilhelm,Jan; Chulkov,Sergey; Bani-Hashemian,Mohammad Hossein;
 Weber,Valery; Borstnik,Urban; Taillefumier,Mathieu;
 Jakobovits,Alice Shoshana; Lazzaro,Alfio; Pabst,Hans; Mueller,Tiziano;
 Schade,Robert; Guidon,Manuel; Andermatt,Samuel; Holmberg,Nico;
 Schenter,Gregory K.; Hehn,Anna; Bussy,Augustin; Belleflamme,Fabian;
 Tabacchi,Gloria; Gloess,Andreas; Lass,Michael; Bethune,Iain;
 Mundy,Christopher J.; Plessl,Christian; Watkins,Matt;
 VandeVondele,Joost; Krack,Matthias; Hutter,Juerg. 
 The Journal of Chemical Physics, 152 (19), (2020). 
 CP2K: An electronic structure and molecular dynamics software package -
 Quickstep: Efficient and accurate electronic structure calculations.
 https://doi.org/10.1063/5.0007045

 Schuett, Ole; Messmer, Peter; Hutter, Juerg; VandeVondele, Joost. 
 Electronic Structure Calculations on Graphics Processing Units, John
 Wiley & Sons, Ltd, 173-190 (2016). 
 GPU-Accelerated Sparse Matrix-Matrix Multiplication for
 Linear Scaling Density Functional Theory.
 https://doi.org/10.1002/9781118670712.ch8

 Heinecke, A; Henry, G; Hutchinson, M; Pabst, H. 
 Proceedings of Intl. Supercomputing Conference, 981-991 (2016). 
 LIBXSMM: Accelerating Small Matrix Multiplications
 by Runtime Code Generation.
 https://doi.org/10.1109/SC.2016.83

 Borstnik, U; VandeVondele, J; Weber, V; Hutter, J. 
 PARALLEL COMPUTING, 40 (5-6), 47-58 (2014). 
 Sparse matrix multiplication: The distributed block-compressed sparse
 row library.
 https://doi.org/10.1016/j.parco.2014.03.012

 Hutter, J; Iannuzzi, M; Schiffmann, F; VandeVondele, J. 
 WIREs Comput Mol Sci., 4 (1), 15-25 (2014). 
 CP2K: atomistic simulations of condensed matter systems.
 https://doi.org/10.1002/wcms.1159

 VandeVondele, J; Hutter, J. 
 JOURNAL OF CHEMICAL PHYSICS, 127 (11), 114105 (2007). 
 Gaussian basis sets for accurate calculations on molecular systems in
 gas and condensed phases.
 https://doi.org/10.1063/1.2770708

 Krack, M. 
 THEORETICAL CHEMISTRY ACCOUNTS, 114 (1-3), 145-152 (2005). 
 Pseudopotentials for H to Kr optimized for gradient-corrected
 exchange-correlation functionals.
 https://doi.org/10.1007/s00214-005-0655-y

 VandeVondele, J; Krack, M; Mohamed, F; Parrinello, M; Chassaing, T;
 Hutter, J. COMPUTER PHYSICS COMMUNICATIONS, 167 (2), 103-128 (2005). 
 QUICKSTEP: Fast and accurate density functional calculations using a
 mixed Gaussian and plane waves approach.
 https://doi.org/10.1016/j.cpc.2004.12.014

 Frigo, M; Johnson, SG. 
 PROCEEDINGS OF THE IEEE, 93 (2), 216-231 (2005). 
 The design and implementation of FFTW3.
 https://doi.org/10.1109/JPROC.2004.840301

 Hartwigsen, C; Goedecker, S; Hutter, J. 
 PHYSICAL REVIEW B, 58 (7), 3641-3662 (1998). 
 Relativistic separable dual-space Gaussian pseudopotentials from H to Rn.
 https://doi.org/10.1103/PhysRevB.58.3641

 Lippert, G; Hutter, J; Parrinello, M. 
 MOLECULAR PHYSICS, 92 (3), 477-487 (1997). 
 A hybrid Gaussian and plane wave density functional scheme.
 https://doi.org/10.1080/002689797170220

 Perdew, JP; Burke, K; Ernzerhof, M. 
 PHYSICAL REVIEW LETTERS, 77 (18), 3865-3868 (1996). 
 Generalized gradient approximation made simple.
 https://doi.org/10.1103/PhysRevLett.77.3865

 Goedecker, S; Teter, M; Hutter, J. 
 PHYSICAL REVIEW B, 54 (3), 1703-1710 (1996). 
 Separable dual-space Gaussian pseudopotentials.
 https://doi.org/10.1103/PhysRevB.54.1703


 -------------------------------------------------------------------------------
 -                                                                             -
 -                                T I M I N G                                  -
 -                                                                             -
 -------------------------------------------------------------------------------
 SUBROUTINE                       CALLS  ASD         SELF TIME        TOTAL TIME
                                MAXIMUM       AVERAGE  MAXIMUM  AVERAGE  MAXIMUM
 CP2K                                 1  1.0    0.029    0.047   27.149   27.149
 qs_energies                          1  2.0    0.000    0.001   25.103   25.104
 scf_post_calculation_gpw             1  3.0    0.000    0.000   16.810   16.813
 write_available_results              1  4.0    0.000    0.000   10.926   10.927
 write_mo_free_results                1  5.0    7.291    7.545   10.925   10.927
 scf_env_do_scf                       1  3.0    0.000    0.000    6.931    6.980
 scf_env_do_scf_inner_loop            4  4.0    0.000    0.001    6.930    6.979
 pw_to_cube                           8  5.8    0.619    2.497    2.886    5.895
 qs_ks_update_qs_env                  4  5.0    0.000    0.000    3.827    3.830
 rebuild_ks_matrix                    4  6.0    0.000    0.000    3.826    3.826
 qs_ks_build_kohn_sham_matrix         4  7.0    0.001    0.002    3.826    3.826
 pw_transfer                        130  8.8    0.013    0.018    3.572    3.655
 fft_wrap_pw1pw2                    113  9.8    0.002    0.002    3.488    3.565
 fft_wrap_pw1pw2_350                 71 10.8    0.315    0.351    3.329    3.378
 mp_file_write_all_chv                8  6.8    0.357    3.366    0.357    3.366
 qs_scf_post_elf                      1  4.0    1.252    1.305    3.346    3.347
 calculate_rho_elec                   9  6.0    0.010    0.012    3.241    3.242
 fft3d_ps                           113 11.8    1.361    1.526    2.516    2.655
 density_rs2pw                        9  7.0    0.001    0.001    2.279    2.492
 rs_pw_transfer                      59  8.6    0.001    0.002    2.207    2.441
 qs_scf_post_occ_cubes                1  4.0    1.293    1.344    2.048    2.050
 qs_vxc_create                        4  8.0    0.000    0.000    1.872    1.873
 xc_vxc_pw_create                     4  9.0    0.024    0.052    1.872    1.873
 mp_bcast_l                           8  6.8    1.786    1.828    1.786    1.828
 qs_elf_calc                          1  5.0    0.022    0.027    1.691    1.696
 grid_collocate_task_list             9  7.0    0.906    1.680    0.906    1.680
 qs_rho_update_rho                    5  5.0    0.000    0.000    1.572    1.573
 cp_fm_syevd                         11  7.1    0.000    0.000    1.518    1.520
 cp_fm_redistribute_end              11  8.1    0.972    1.504    0.974    1.504
 cp_fm_syevd_base                    11  8.0    0.529    1.488    0.529    1.488
 rs_pw_transfer_RS2PW_350            12  8.6    0.340    0.460    0.999    1.353
 mp_waitany                         648 10.5    0.955    1.296    0.955    1.296
 topology_control                     1  2.0    0.000    0.000    1.155    1.285
 connectivity_control                 1  3.0    0.000    0.000    1.139    1.269
 topology_generate_bond               1  4.0    0.000    0.000    1.139    1.269
 topology_generate_bond_3             1  5.0    0.000    0.000    1.138    1.269
 build_fist_neighbor_lists            1  6.0    1.138    1.269    1.138    1.269
 sum_up_and_integrate                 4  8.0    0.008    0.012    1.265    1.266
 integrate_v_rspace                   4  9.0    0.000    0.000    1.257    1.259
 qs_scf_new_mos                       4  5.0    0.000    0.000    1.085    1.086
 eigensolver                          4  6.0    0.000    0.000    1.051    1.051
 energy_windows                       1  6.0    0.000    0.001    1.032    1.032
 mp_alltoall_z22v                   113 13.8    0.831    1.020    0.831    1.020
 xc_rho_set_and_dset_create           4 10.0    0.011    0.016    0.930    0.998
 mp_waitall_1                      7151 11.8    0.729    0.832    0.729    0.832
 potential_pw2rs                      4 10.0    0.000    0.001    0.824    0.825
 qs_energies_init_hamiltonians        1  3.0    0.000    0.000    0.663    0.796
 dbcsr_multiply_generic              66  8.0    0.002    0.002    0.784    0.791
 yz_to_x                             50 12.4    0.112    0.148    0.521    0.673
 multiply_cannon                     66  9.0    0.003    0.004    0.631    0.669
 x_to_yz                             49 13.1    0.200    0.256    0.620    0.666
 matrix_sqrt_Newton_Schulz            1  7.0    0.000    0.001    0.654    0.654
 rs_pw_transfer_RS2PW_120            10  8.8    0.068    0.100    0.275    0.649
 multiply_cannon_loop                66 10.0    0.004    0.005    0.602    0.644
 mp_sum_d                           749  4.8    0.357    0.574    0.357    0.574
 init_scf_run                         1  3.0    0.000    0.000    0.543    0.546
 create_qs_kind_set                   1  2.0    0.000    0.000    0.225    0.544
 read_qs_kind                         3  3.0    0.030    0.056    0.225    0.544
 -------------------------------------------------------------------------------

 The number of warnings for this run is : 2
 
 -------------------------------------------------------------------------------
  **** **** ******  **  PROGRAM ENDED AT                 2024-07-08 16:13:38.610
 ***** ** ***  *** **   PROGRAM RAN ON            c1n3.epsteindrive.tifrh.res.in
 **    ****   ******    PROGRAM RAN BY                              raheelhammad
 ***** **    ** ** **   PROGRAM PROCESS ID                                137004
  **** **  *******  **  PROGRAM STOPPED IN /home/raheelhammad/cp2k/Electrostatic
                                           _TMD_new/Neutral/4x4/Li1_Li2
